 
[ defaults ]
; nbfunc   comb-rule   gen-pairs  fudgeLJ  fudgeQQ
1          3           no          1.0       0.0
 
[ atomtypes ]
; name       mass       charge  ptype  sigma      espilon
OF           15.9994    0.000   A      0.2900     0.587600
STh          32.0600    0.000   A      0.3550     1.046000
CTh2         12.0110    0.000   A      0.3550     0.292880
CTh3         12.0110    0.000   A      0.3550     0.292880
CO           12.0110    0.000   A      0.3750     0.439320
OES          15.9994    0.000   A      0.2960     0.878640
OET          15.9994    0.000   A      0.3000     0.711280
CC           12.0110    0.000   A      0.3550     0.292880
HTh2          1.0079    0.000   A      0.2420     0.125520
HTh3          1.0079    0.000   A      0.2420     0.125520
FTh3         18.9984    0.000   A      0.2850     0.255224
CT           12.0110    0.000   A      0.3500     0.276144
HT            1.0079    0.000   A      0.2500     0.125520
CTE          12.0110    0.000   A      0.3500     0.276144
HTE           1.0079    0.000   A      0.2420     0.062760
 
 
[ moleculetype ]
; Name 		  nrexcl
 PBD    3
 
[ atoms ]
;    nr      type  resnr residue  atom     cgnr    charge     mass
;    63 atoms
1 CTE 1 PBD CTE 1 0.000000 12.0110
2 OET 1 PBD OET 2 0.000000 15.9994
3 CO 1 PBD CO 3 0.000000 12.0110
4 OES 1 PBD OES 4 0.000000 15.9994
5 CTh3 1 PBD CTh3 5 0.000000 12.0110
6 FTh3 1 PBD FTh3 6 0.000000 18.9984
7 CTh3 1 PBD CTh3 7 0.000000 12.0110
8 CTh2 1 PBD CTh2 8 0.000000 12.0110
9 STh 1 PBD STh 9 0.000000 32.0600
10 CTh2 1 PBD CTh2 10 0.000000 12.0110
11 CTh2 1 PBD CTh2 11 0.000000 12.0110
12 CTh3 1 PBD CTh3 12 0.000000 12.0114
13 CTh3 1 PBD CTh3 13 0.000000 12.0110
14 CTh2 1 PBD CTh2 14 0.000000 12.0110
15 STh 1 PBD STh 15 0.000000 32.0600
16 CTh2 1 PBD CTh2 16 0.000000 12.0110
17 CTh3 1 PBD CTh3 17 0.000000 12.0110
18 CTh3 1 PBD CTh3 18 0.000000 12.0110
19 CTh2 1 PBD CTh2 19 0.000000 12.0110
20 CT 1 PBD CT 20 0.000000 12.0110
21 OF 1 PBD OF 21 0.000000 15.9994
22 CTh3 1 PBD CTh3 22 0.000000 12.0110
23 CTh3 1 PBD CTh3 23 0.000000 12.0110
24 CTh2 1 PBD CTh2 24 0.000000 12.0110
25 STh 1 PBD STh 25 0.000000 32.0600
26 CTh2 1 PBD CTh2 26 0.000000 12.0110
27 CTh2 1 PBD CTh2 27 0.000000 12.0110
28 CTh3 1 PBD CTh3 28 0.000000 12.0110
29 CTh3 1 PBD CTh3 29 0.000000 12.0110
30 CTh2 1 PBD CTh2 30 0.000000 12.0110
31 CT 1 PBD CT 31 0.000000 12.0110
32 OF 1 PBD OF 32 0.000000 15.9994
33 CTh2 1 PBD CTh2 33 0.000000 12.0110
34 STh 1 PBD STh 34 0.000000 32.0600
35 HTE 1 PBD HTE 35 0.000000 1.0079
36 HTE 1 PBD HTE 36 0.000000 1.0079
37 HTh2 1 PBD HTh2 37 0.000000 1.0079
38 HTh3 1 PBD HTh3 38 0.000000 1.0079
39 HTh3 1 PBD HTh3 39 0.000000 1.0079
40 HTh3 1 PBD HTh3 40 0.000000 1.0079
41 HT 1 PBD HT 41 0.000000 1.0079
42 HT 1 PBD HT 42 0.000000 1.0079
43 HTh3 1 PBD HTh3 43 0.000000 1.0079
44 HTh2 1 PBD HTh2 44 0.000000 1.0079
45 HTh3 1 PBD HTh3 45 0.000000 1.0079
46 HTh3 1 PBD HTh3 46 0.000000 1.0079
47 HT 1 PBD HT 47 0.000000 1.0079
48 HT 1 PBD HT 48 0.000000 1.0079
49 CC 1 PBD CC 49 0.000000 12.0110
50 CC 1 PBD CC 50 0.000000 12.0110
51 CTh2 1 PBD CTh2 51 0.000000 12.0110
52 CT 1 PBD CT 52 0.000000 12.0119
53 HT 1 PBD HT 53 0.000000 1.0079
54 HT 1 PBD HT 54 0.000000 1.0079
55 HT 1 PBD HT 55 0.000000 1.0079
56 CT 1 PBD CT 56 0.000000 12.0110
57 HT 1 PBD HT 57 0.000000 1.0079
58 HT 1 PBD HT 58 0.000000 1.0079
59 HT 1 PBD HT 59 0.000000 1.0079
60 CT 1 PBD CT 60 0.000000 12.0110
61 HT 1 PBD HT 61 0.000000 1.0079
62 HT 1 PBD HT 62 0.000000 1.0079
63 HT 1 PBD HT 63 0.000000 1.0079
 
[ system ]
PBD
 
[ molecules ]
PBD     1
 
